
Lmod is automatically replacing "cce/15.0.0" with "amd/5.3.0".


Lmod is automatically replacing "PrgEnv-cray/8.3.3" with "PrgEnv-amd/8.3.3".


Due to MODULEPATH changes, the following have been reloaded:
  1) cray-mpich/8.1.23


The following have been reloaded with a version change:
  1) PrgEnv-amd/8.3.3 => PrgEnv-amd/8.5.0
  2) cray-fftw/3.3.10.3 => cray-fftw/3.3.10.6
  3) cray-libsci/22.12.1.1 => cray-libsci/23.12.5
  4) cray-mpich/8.1.23 => cray-mpich/8.1.28
  5) cray-pmi/6.1.8 => cray-pmi/6.1.13
  6) craype/2.7.19 => craype/2.7.30
  7) perftools-base/22.12.0 => perftools-base/23.12.0


The following have been reloaded with a version change:
  1) amd/5.3.0 => amd/5.7.1

Using /<redacted>/examples-lammps/frontier/build/lammps/install/bin/lmp
Beginning SBCAST
SBCAST exit code: 0
Adding symlinks to several libraries
Finished adding symlinks
Patching LD_LIBRARY_PATH
LAMMPS (17 Apr 2024 - Development - patch_17Apr2024-147-g77239a75dc)
KOKKOS mode with Kokkos version 4.3.1 is enabled (src/KOKKOS/kokkos.cpp:72)
  will use up to 1 GPU(s) per node
Lattice spacing in x,y,z = 1.6795962 1.6795962 1.6795962
Created orthogonal box = (0 0 0) to (335.91924 335.91924 335.91924)
  2 by 2 by 4 MPI processor grid
Created 32000000 atoms
  using lattice units in orthogonal box = (0 0 0) to (335.91924 335.91924 335.91924)
  create_atoms CPU = 0.156 seconds
Generated 0 of 0 mixed pair_coeff terms from geometric mixing rule
Neighbor list info ...
  update: every = 20 steps, delay = 0 steps, check = no
  max neighbors/atom: 2000, page size: 100000
  master list distance cutoff = 2.8
  ghost atom cutoff = 2.8
  binsize = 2.8, bins = 120 120 120
  1 neighbor lists, perpetual/occasional/extra = 1 0 0
  (1) pair lj/cut/kk, perpetual
      attributes: full, newton off, kokkos_device
      pair build: full/bin/kk/device
      stencil: full/bin/3d
      bin: kk/device
Setting up Verlet run ...
  Unit style    : lj
  Current step  : 0
  Time step     : 0.005
Per MPI rank memory allocation (min/avg/max) = 294.7 | 294.7 | 294.7 Mbytes
   Step          Temp          E_pair         E_mol          TotEng         Press     
         0   1.44          -6.7733681      0             -4.6133681     -5.0196693    
       100   0.75941602    -5.7614399      0             -4.6223159      0.19027589   
Loop time of 0.847978 on 16 procs for 100 steps with 32000000 atoms

Performance: 50944.730 tau/day, 117.928 timesteps/s, 3.774 Gatom-step/s
106.9% CPU use with 16 MPI tasks x 1 OpenMP threads

MPI task timing breakdown:
Section |  min time  |  avg time  |  max time  |%varavg| %total
---------------------------------------------------------------
Pair    | 0.0091447  | 0.0092921  | 0.0097133  |   0.2 |  1.10
Neigh   | 0.13889    | 0.14293    | 0.14718    |   0.6 | 16.85
Comm    | 0.16282    | 0.16835    | 0.17702    |   1.0 | 19.85
Output  | 0.00028006 | 0.0011641  | 0.0020417  |   1.3 |  0.14
Modify  | 0.51118    | 0.51704    | 0.52084    |   0.4 | 60.97
Other   |            | 0.009206   |            |       |  1.09

Nlocal:          2e+06 ave 2.00022e+06 max 1.99979e+06 min
Histogram: 3 0 1 1 2 3 3 1 1 1
Nghost:         288817 ave      289037 max      288499 min
Histogram: 1 0 1 0 2 4 4 1 1 2
Neighs:              0 ave           0 max           0 min
Histogram: 16 0 0 0 0 0 0 0 0 0
FullNghs:  1.50217e+08 ave 1.50247e+08 max 1.50191e+08 min
Histogram: 1 0 3 2 3 2 3 1 0 1

Total # of neighbors = 2.4034771e+09
Ave neighs/atom = 75.108661
Neighbor list builds = 5
Dangerous builds not checked
Total wall time: 0:00:02
